4176
Atoms. Timestep: 0
1 12.1246 28.093 22.2745
2 12.5368 28.7561 22.8993
2 11.4948 28.5639 21.6568
1 1.17079 29.3778 23.7298
2 1.91804 29.4848 23.074
2 0.40074 28.9196 23.2859
1 29.6831 14.7373 21.6279
2 30.5428 14.9374 21.158
2 29.7313 15.0734 22.5685
1 10.8727 7.00153 35.1092
2 11.1106 6.21663 34.5371
2 9.95658 7.32301 34.8698
1 9.46588 6.43648 19.799
2 9.0484 6.32936 18.8967
2 10.3172 5.91326 19.8366
1 3.17905 29.698 22.1192
2 3.1924 30.6329 21.7646
2 3.38651 29.058 21.3794
1 23.3862 11.2998 30.7824
2 23.6988 10.4669 31.239
2 24.1735 11.7921 30.4113
1 11.0376 10.4611 30.1474
2 10.9468 11.4511 30.2546
2 11.6068 10.0968 30.8845
1 26.24 25.4094 21.0675
2 25.6704 26.0926 21.5244
2 26.2231 25.5676 20.0803
1 10.8409 35.3391 19.7835
2 10.207 0.54421 19.4802
2 11.0625 34.7401 19.0141
1 20.0738 4.95885 33.6236
2 19.7736 5.8708 33.9032
2 20.6815 4.57954 34.3214
1 12.439 28.5666 17.3984
2 12.8035 27.995 18.1335
2 11.6389 28.1218 16.996
1 14.8034 7.14199 1.42116
2 14.86 6.68442 0.53382
2 14.1359 6.67036 1.99737
1 15.8797 22.1833 24.1347
2 15.971 22.7153 23.2929
2 16.6962 22.3085 24.6983
1 13.2919 18.3047 12.3716
2 12.5584 18.6323 12.967
2 13.2482 18.7833 11.4947
1 20.2741 23.9416 15.5021
2 20.1785 24.6773 14.8317
2 20.6201 23.1202 15.0486
1 30.102 10.7818 14.2432
2 29.4017 11.0052 13.5653
2 29.7012 10.2133 14.9616
1 19.7153 12.9898 25.4058
2 20.2152 13.3585 26.1894
2 18.7525 12.873 25.6496
1 4.22362 18.9931 32.6295
2 4.05067 18.1787 32.0756
2 3.38513 19.5335 32.6983
1 17.6728 30.868 34.8693
2 17.1887 31.7422 34.9053
2 18.1861 30.8061 34.0134
1 7.49194 27.8402 34.656
2 7.36412 27.3799 33.7775
2 7.8365 27.1853 35.3285
1 9.58199 8.75878 28.3877
2 8.89931 8.96106 27.6856
2 9.61451 9.50981 29.0471
1 18.1545 7.97877 4.02967
2 17.6538 8.02465 3.16529
2 17.5607 7.59903 4.73904
1 13.4547 10.3019 21.946
2 14.1265 11.0172 21.7537
2 13.1554 10.373 22.8975
1 28.7737 1.83495 6.23711
2 29.5541 1.23316 6.06742
2 28.4386 1.6917 7.16831
1 21.1741 3.00906 4.56251
2 21.0077 2.96011 5.54734
2 21.1749 3.96581 4.27178
1 15.8626 20.7763 10.3468
2 15.8475 19.9923 10.9673
2 15.7676 20.4569 9.40393
1 19.3728 6.41248 28.3323
2 19.8693 6.14505 27.5065
2 19.2366 7.40311 28.3332
1 19.6987 26.8011 22.5667
2 20.5187 26.5454 22.0547
2 19.5252 26.1213 23.2793
1 10.4493 1.95847 4.23874
2 10.9944 1.49085 4.9346
2 10.845 2.85816 4.05448
1 6.35411 29.1972 23.1792
2 5.50252 29.6539 23.4364
2 7.0135 29.8773 22.8589
1 27.7031 33.6387 1.45545
2 27.4551 34.5685 1.72731
2 28.2382 33.2101 2.18338
1 34.5415 25.9072 10.9727
2 34.2694 25.0724 10.494
2 34.7463 26.6227 10.3048
1 35.137 10.3516 32.7539
2 35.3167 9.89658 31.8817
2 35.4069 9.74994 33.5056
1 19.4555 25.2295 13.0689
2 18.6355 25.7908 12.9568
2 19.5726 24.6464 12.2651
1 8.76637 34.606 24.2015
2 9.50956 34.7087 24.8626
2 9.1164 34.1722 23.3712
1 18.5219 34.0029 24.7622
2 19.5019 33.8741 24.6112
2 18.0081 33.4432 24.112
1 5.46879 16.7565 12.0936
2 5.19937 17.6766 11.8093
2 5.6524 16.7517 13.0765
1 26.7819 26.5427 35.1712
2 27.384 26.9334 0.42029
2 27.1809 25.6943 34.8235
1 14.0425 15.273 12.4152
2 14.3616 15.765 13.2252
2 14.3096 15.7758 11.5931
1 6.75576 6.34672 6.04938
2 7.5817 5.78427 6.08735
2 5.98388 5.83092 6.42094
1 10.8658 34.9306 25.9817
2 10.6941 35.3245 26.8846
2 11.5917 35.4457 25.5259
1 18.3453 30.512 26.2745
2 18.0417 30.2955 25.3466
2 19.1755 31.0678 26.2323
1 13.1849 0.77946 20.6249
2 13.4491 0.56426 21.565
2 12.2915 0.3751 20.4289
1 24.4779 24.0588 28.2094
2 24.1571 23.1417 27.973
2 23.7439 24.7195 28.0521
1 30.791 15.3378 34.8674
2 31.1761 15.3231 0.3429
2 29.9783 14.7561 34.8361
1 18.3089 19.7691 34.2373
2 17.7598 20.1985 33.5204
2 19.0483 19.241 33.8197
1 24.1892 16.2111 25.5392
2 24.3509 17.176 25.3322
2 24.2557 16.0663 26.5264
1 9.29176 8.02479 32.2384
2 10.2565 7.88688 32.4624
2 8.95956 7.24816 31.7032
1 5.32982 1.15354 27.6455
2 4.519 0.59091 27.4844
2 5.0501 2.09452 27.8359
1 22.8985 21.3384 11.6389
2 23.2439 20.5199 12.098
2 22.4357 21.0754 10.7924
1 16.8846 32.6078 23.1633
2 15.9062 32.8015 23.091
2 17.0167 31.6511 23.4228
1 29.2441 7.09722 23.707
2 28.4775 7.53121 24.1802
2 29.5422 7.68009 22.9511
1 34.2995 6.85677 2.08156
2 34.9735 6.89704 1.3439
2 33.7096 7.66305 2.03849
1 32.9541 29.2689 19.2597
2 32.5742 28.3725 19.4878
2 33.6666 29.1623 18.5662
1 9.78186 33.7316 21.967
2 9.24351 33.1144 21.3933
2 10.1528 34.4707 21.4047
1 7.86139 6.97451 8.72713
2 8.16632 6.08021 9.05452
2 7.15204 6.85123 8.03315
1 34.2522 27.8171 31.7931
2 34.7005 28.6082 31.377
2 33.7522 28.1081 32.6087
1 34.9405 26.8484 19.5204
2 35.4046 26.0058 19.7934
2 34.1505 26.624 18.9499
1 21.7641 32.2057 20.8916
2 22.6624 31.8248 21.1107
2 21.7667 33.1896 21.0703
1 34.3079 3.43694 14.2416
2 34.8883 2.82261 13.7071
2 34.8798 4.10183 14.722
1 17.8811 18.9103 14.4219
2 17.9254 18.9768 15.4186
2 18.5957 19.4811 14.0177
1 19.084 14.2291 20.7838
2 19.6217 13.8263 21.5245
2 18.6245 13.5029 20.2725
1 7.85997 17.9783 9.48138
2 7.51843 18.8587 9.15243
2 8.12328 17.4105 8.70147
1 0.30367 23.1833 0.381
2 35.3448 24.0684 0.38922
2 35.1316 22.4497 0.42108
1 4.53675 21.2162 29.862
2 5.08827 22.0378 29.7178
2 5.02017 20.5941 30.4778
1 3.76321 1.66558 34.1162
2 4.7298 1.83277 33.9219
2 3.56027 1.93821 35.0567
1 35.1795 34.7022 7.53093
2 34.2207 34.474 7.36203
2 0.09341 33.9853 8.0872
1 24.82 8.21485 16.0934
2 25.5582 8.87272 15.9445
2 25.0095 7.68219 16.9182
1 4.18282 28.5283 29.7084
2 5.11675 28.3857 30.0361
2 4.20438 29.0579 28.8605
1 26.4372 31.273 3.91741
2 26.5184 30.5685 3.21243
2 27.3201 31.7267 4.03853
1 35.1124 7.70363 27.0802
2 35.1742 7.38841 28.0272
2 34.5439 7.07077 26.5546
1 21.454 34.0566 2.90167
2 21.0249 33.7627 3.75574
2 22.281 34.5799 3.10701
1 31.2124 3.31299 25.804
2 30.7251 4.00625 25.2731
2 31.5151 3.70889 26.6709
1 7.36998 1.04818 25.8312
2 7.49443 0.23812 25.2582
2 6.65222 0.87278 26.5049
1 30.3448 6.09271 15.7348
2 30.8702 5.5598 15.0716
2 30.4178 5.66752 16.6369
1 34.94 25.1538 32.0367
2 34.6546 24.5743 32.8
2 34.5772 26.0767 32.1651
1 0.48609 26.4108 7.9569
2 35.2444 26.0614 7.39276
2 0.34398 27.3849 8.13268
1 28.5553 15.8355 29.5306
2 28.3543 16.8113 29.6165
2 29.5147 15.7139 29.2764
1 18.1478 14.6904 4.78991
2 18.5303 15.5227 5.1911
2 17.2896 14.9083 4.32534
1 23.9887 17.7991 4.00089
2 24.9108 17.8024 3.61409
2 23.5603 16.911 3.83379
1 27.7861 18.3999 29.8264
2 27.0838 18.9361 30.2945
2 28.3531 19.0069 29.2697
1 32.5587 20.9931 23.1596
2 33.1448 20.5401 22.488
2 32.4607 21.9588 22.919
1 0.52838 10.6884 20.5135
2 35.1841 10.6954 21.0392
2 1.10279 11.4556 20.7988
1 24.9868 7.82783 20.9406
2 25.9098 7.94912 20.5756
2 24.3173 8.12211 20.2586
1 22.8439 20.1252 4.77949
2 23.2195 19.2014 4.85318
2 23.5676 20.7582 4.50442
1 33.5355 10.0148 10.4564
2 32.8312 9.3545 10.717
2 34.1017 10.2298 11.252
1 16.0058 10.0189 6.93528
2 16.4148 10.7469 6.38507
2 15.0177 10.1605 6.99384
1 29.8115 30.3224 24.4062
2 29.9199 30.0288 25.356
2 29.9357 29.5379 23.7987
1 4.63663 9.89409 32.0904
2 4.00394 9.69969 31.3409
2 5.49457 9.4035 31.9382
1 32.8575 18.7924 15.2642
2 33.0756 17.8838 15.6204
2 33.3939 19.4799 15.7536
1 0.61908 7.9515 15.2532
2 0.05994 7.85361 16.0765
2 35.5302 8.04513 14.4552
1 2.411 1.86682 23.9442
2 2.4631 1.85101 22.9458
2 2.78298 1.01413 24.311
1 35.1318 4.79424 16.915
2 34.7946 5.73186 16.8307
2 34.4881 4.25622 17.4592
1 0.97118 31.0443 15.1796
2 35.516 31.2996 15.2803
2 1.24465 30.4658 15.948
1 2.19969 4.72227 17.0278
2 2.38681 5.64899 17.3536
2 1.21985 4.62094 16.8557
1 11.3246 9.43507 18.2339
2 11.3563 9.66113 17.2604
2 10.4186 9.65219 18.5973
1 1.17633 29.8745 2.30651
2 0.77781 30.5446 1.68034
2 2.08692 30.1794 2.5855
1 30.896 1.46693 1.97982
2 31.6638 1.01488 2.43382
2 30.6706 0.97609 1.13828
1 5.03295 1.93998 10.3155
2 4.31256 1.98624 11.0075
2 4.62804 2.03388 9.40598
1 12.0888 2.72082 8.77105
2 11.7393 2.99595 9.66666
2 12.2194 3.53177 8.20074
1 33.015 6.97472 32.6973
2 32.3338 6.9879 31.9653
2 33.9289 7.07439 32.3039
1 24.1976 6.71414 6.62083
2 24.485 5.94255 6.05339
2 23.3435 7.0914 6.26267
1 11.2079 33.66 13.7399
2 11.0861 33.9643 12.7952
2 12.1606 33.7934 14.0128
1 9.0456 20.2474 13.1331
2 8.82766 19.4779 13.7334
2 9.27855 19.9046 12.223
1 8.42921 16.2949 7.43324
2 9.19124 15.7206 7.13424
2 7.64285 15.7175 7.65276
1 8.18016 30.957 14.0726
2 7.61764 30.4712 14.7415
2 7.67505 31.7458 13.7225
1 17.7641 27.722 30.1786
2 17.6528 28.6356 29.7875
2 17.4486 27.7249 31.1275
1 17.4577 25.8551 16.7831
2 18.0164 26.6272 17.0858
2 17.9643 25.0037 16.9188
1 28.6 12.4547 18.3044
2 28.8689 12.5006 17.3424
2 28.3284 13.3644 18.6184
1 20.0396 19.6071 21.6149
2 19.2143 19.3587 22.1219
2 20.567 20.2732 22.1423
1 24.4302 31.0811 15.2743
2 24.6723 31.0568 14.3044
2 23.6216 31.6554 15.4017
1 14.0348 4.28377 28.2302
2 13.7183 5.06061 27.6859
2 14.8131 3.85222 27.7741
1 3.18866 1.92022 1.25228
2 3.95739 2.04883 1.87873
2 2.56934 1.22782 1.62238
1 22.5447 23.6022 9.46826
2 22.8153 22.7834 8.96211
2 23.3455 23.9939 9.92131
1 6.44525 3.02083 18.876
2 5.9694 2.76314 19.7169
2 5.93293 2.68338 18.0864
1 12.3166 10.9431 26.1838
2 11.7828 11.6082 26.7058
2 12.5282 10.1565 26.7639
1 8.93649 1.70958 18.8143
2 9.43794 2.41836 19.3105
2 8.03395 2.05639 18.5593
1 2.23387 20.2181 0.67571
2 1.96454 19.3297 0.304
2 1.48917 20.8729 0.54693
1 32.347 18.1365 22.3822
2 31.7591 18.9078 22.6261
2 32.8541 17.8355 23.1898
1 20.246 32.0954 18.4947
2 19.3745 32.5638 18.6401
2 20.8229 32.2063 19.3039
1 32.444 13.4849 19.5472
2 32.4922 14.2744 20.1591
2 31.9959 13.7516 18.6939
1 35.2659 18.2161 1.39574
2 0.12239 18.4083 2.30752
2 34.4901 17.5896 1.47095
1 3.39252 26.4373 7.3593
2 2.42858 26.4207 7.6248
2 3.52347 25.8732 6.54412
1 15.9472 21.757 15.7708
2 16.582 22.155 15.1085
2 15.2293 21.2576 15.2858
1 20.4938 23.5718 7.41254
2 19.7041 23.4522 8.01425
2 21.2909 23.8333 7.95669
1 6.64565 4.33685 1.91046
2 6.29368 4.91344 1.17318
2 7.51811 4.70392 2.23304
1 26.7066 32.8928 9.89051
2 26.5975 31.8988 9.88051
2 27.3614 33.1491 10.6014
1 5.48704 32.6303 12.9317
2 5.73825 33.4925 13.3716
2 4.53739 32.4079 13.1523
1 3.37091 5.9547 9.99334
2 3.99627 6.57052 10.4725
2 3.39679 5.05241 10.4236
1 2.63445 9.3784 30.0084
2 2.81625 9.87705 29.1609
2 1.69314 9.04098 30.0012
1 0.97785 8.01694 8.99862
2 1.8594 8.12605 8.5394
2 0.38758 8.79268 8.77566
1 2.73822 11.5298 15.3858
2 3.54689 11.8438 15.8833
2 2.92713 10.6402 14.9701
1 18.3557 23.169 17.3705
2 17.7837 22.4372 17.0001
2 19.0684 23.4023 16.709
1 9.13053 4.89654 5.72398
2 9.75352 5.64004 5.96693
2 9.4531 4.04375 6.13467
1 7.31448 35.3513 12.8644
2 7.78778 35.1642 13.7252
2 6.36291 0.0876 13.0532
1 0.52118 24.3998 19.6649
2 0.83476 23.5709 20.128
2 0.24832 24.1759 18.7292
1 11.6431 23.4208 11.5291
2 12.6168 23.6468 11.5012
2 11.1483 24.1385 12.0189
1 3.45756 3.18529 19.1296
2 3.12124 3.74194 18.37
2 3.81274 3.78249 19.8487
1 20.6331 31.6407 26.8936
2 21.2284 31.758 26.0988
2 20.8243 32.3591 27.5623
1 27.8724 20.3287 9.33395
2 27.0269 20.7724 9.03698
2 27.6606 19.6341 10.0215
1 31.2904 11.9346 0.40169
2 31.3788 12.0352 1.39266
2 30.3229 11.9545 0.1497
1 21.3949 7.42434 2.71837
2 22.2692 6.94124 2.67113
2 21.0175 7.34108 3.64064
1 20.0191 19.5369 17.1665
2 19.0356 19.4276 17.0226
2 20.1768 20.1002 17.9775
1 3.61472 34.6743 24.7223
2 3.58465 34.5404 25.7128
2 4.5522 34.5496 24.3974
1 23.4167 19.5569 18.8981
2 24.1013 19.0041 18.423
2 22.9987 20.1965 18.2531
1 13.0199 3.81803 4.38911
2 13.3807 3.06814 3.83464
2 12.9236 4.63574 3.82163
1 15.2842 28.3699 13.0709
2 15.7503 28.8669 12.339
2 14.3794 28.0835 12.7556
1 31.0729 4.64018 29.6441
2 30.8904 5.3524 30.3219
2 31.285 5.06438 28.7637
1 18.67 22.7197 9.28241
2 19.4332 22.6801 9.9273
2 18.1867 21.8442 9.28383
1 20.6768 4.79499 26.4446
2 21.3631 4.9068 25.7259
2 19.8656 4.35059 26.0646
1 23.3249 28.5938 34.8759
2 22.3442 28.7767 34.8078
2 23.4715 27.618 35.0382
1 19.3043 32.1597 13.0147
2 18.7968 32.1751 13.8762
2 19.7477 33.0447 12.8731
1 34.7636 20.4989 35.2439
2 34.8009 20.2298 34.2816
2 34.8967 19.693 0.37358
1 13.9865 1.37155 3.23039
2 13.5499 0.47234 3.25696
2 14.8802 1.32142 3.67626
1 24.9612 8.59168 8.51399
2 24.9001 7.88536 7.8088
2 25.9211 8.74798 8.74688
1 14.178 14.8666 29.6202
2 14.5062 13.9671 29.9084
2 13.2088 14.8071 29.3817
1 32.4921 9.01293 2.57301
2 31.8852 8.85624 3.35211
2 32.9948 9.86668 2.7085
1 33.4788 32.1762 27.4684
2 33.3294 32.2128 28.4565
2 34.0697 31.3998 27.2492
1 31.0962 6.2232 0.75259
2 31.5935 5.78768 35.4495
2 31.3613 7.18545 0.81397
1 14.5722 18.7896 19.0883
2 15.5108 18.795 19.4332
2 14.2272 17.8511 19.0753
1 34.1227 15.7723 34.761
2 34.1749 15.1958 0.12925
2 33.3416 16.3916 34.8401
1 27.1848 6.31416 11.1444
2 27.1936 6.8844 10.323
2 26.8271 6.84346 11.9138
1 11.8431 26.7796 35.2864
2 10.9657 26.4343 0.17205
2 12.4934 26.8236 0.59765
1 7.69412 20.7208 27.4978
2 7.69014 21.7035 27.3129
2 7.81598 20.2208 26.6404
1 23.5083 8.78434 32.0301
2 23.2686 8.22923 31.2337
2 23.3965 8.24013 32.8616
1 15.5716 13.0001 12.6017
2 14.7908 13.5465 12.9047
2 15.4572 12.7613 11.6374
1 11.2988 27.9293 8.68449
2 11.6464 27.0703 8.30868
2 11.2791 28.6239 7.96544
1 15.7587 14.5551 3.49819
2 16.0352 15.149 2.74271
2 15.6147 13.6264 3.15656
1 29.0415 26.8844 19.8509
2 28.5657 26.7536 18.9811
2 28.975 27.8434 20.1262
1 28.0281 8.84491 0.36833
2 29.0239 8.89761 0.29466
2 27.771 8.71695 1.32619
1 32.7501 2.39378 21.0186
2 32.1449 1.59871 20.9796
2 33.7013 2.09215 20.9532
1 16.2525 5.40744 30.729
2 16.7314 6.28231 30.8011
2 16.6048 4.89842 29.9437
1 28.578 22.3152 24.2243
2 28.5847 23.0966 24.8483
2 29.275 21.6565 24.5075
1 31.7129 17.9841 9.79888
2 32.5983 17.6094 10.0739
2 31.028 17.7653 10.4938
1 28.8212 33.245 34.5956
2 28.5472 33.9796 33.9749
2 28.3328 33.3419 35.4628
1 34.6088 19.7154 32.7129
2 34.6459 19.244 31.8318
2 33.9198 20.4391 32.6749
1 17.6961 27.6507 3.21742
2 18.4671 27.4143 3.80862
2 17.7884 28.5985 2.91219
1 26.6881 34.6217 27.4934
2 26.4551 35.4475 28.0069
2 26.5949 34.8008 26.514
1 21.3362 26.6247 14.5046
2 20.6957 26.1627 13.8911
2 22.2592 26.5728 14.1234
1 0.36454 14.166 2.11556
2 0.97624 14.6598 1.49757
2 35.1144 13.7734 1.59245
1 23.7932 1.57159 23.815
2 23.005 1.11432 24.2269
2 23.4893 2.12744 23.0414
1 8.54975 33.4624 4.50736
2 9.38674 33.1918 4.03176
2 7.78193 33.4446 3.867
1 33.975 22.1762 28.9386
2 33.7355 23.0501 29.3616
2 34.5369 22.3411 28.1281
1 14.495 4.44877 8.81426
2 14.1172 4.62743 7.90582
2 15.4232 4.81711 8.8675
1 33.7961 24.0179 9.18291
2 33.9701 23.0865 8.86336
2 33.5597 24.5988 8.40407
1 16.2285 19.0034 12.266
2 16.9487 18.9845 12.9595
2 15.3589 18.7363 12.6813
1 31.0084 33.5732 32.2527
2 30.9472 33.2437 33.1948
2 30.2927 33.1434 31.7021
1 2.10006 7.03828 25.4938
2 1.34846 7.26527 26.1131
2 2.26908 6.05309 25.5219
1 20.3905 7.66788 35.4535
2 20.3274 7.14917 0.85891
2 21.3161 7.58937 35.0833
1 29.2739 19.0319 27.6853
2 28.408 18.617 27.4061
2 30.0092 18.6973 27.096
1 13.9394 22.6615 17.3852
2 14.7902 22.518 16.8798
2 14.0299 23.4691 17.9679
1 25.1285 22.9244 17.5385
2 24.2788 22.3985 17.577
2 25.7634 22.5831 18.2315
1 14.8142 28.3636 3.792
2 15.7903 28.2893 3.58772
2 14.6933 28.6389 4.7457
1 9.4176 1.55572 11.4412
2 9.09058 1.0217 12.2208
2 9.03168 1.18373 10.597
1 0.58572 35.2956 12.1149
2 1.04027 34.426 11.9218
2 35.3465 35.4338 11.4631
1 24.9957 27.1137 22.8591
2 24.9447 26.624 23.7295
2 24.9728 28.0988 23.029
1 28.0983 27.0814 14.3674
2 28.1457 26.0905 14.4937
2 28.798 27.3679 13.713
1 29.4416 8.93119 21.3883
2 29.928 9.47643 20.7055
2 28.7732 8.3442 20.9315
1 5.82233 14.8962 2.82244
2 5.70821 13.9749 3.19408
2 5.10567 15.0748 2.14829
1 31.1132 8.01659 27.8843
2 31.5124 8.74883 27.3326
2 30.7992 7.28065 27.2845
1 24.921 28.5918 25.9692
2 25.909 28.4836 25.8597
2 24.732 29.0908 26.8149
1 34.8606 10.3004 12.8735
2 34.6489 9.32336 12.8974
2 34.2478 10.7895 13.4942
1 10.3157 24.5799 6.57007
2 9.42999 24.664 7.02652
2 10.1735 24.3867 5.59931
1 4.30063 0.2853 18.8489
2 3.76992 0.99348 19.3145
2 4.35052 0.49419 17.8723
1 8.41827 15.4893 34.9152
2 8.57237 16.1534 34.1836
2 8.04251 14.6475 34.5276
1 6.19035 7.5403 24.2189
2 5.98782 8.51233 24.3376
2 6.98218 7.43584 23.6173
1 1.08041 14.4101 23.7542
2 0.61056 15.0893 23.1903
2 0.47286 13.6323 23.9147
1 31.6703 8.22586 14.0843
2 31.1024 7.76414 14.7656
2 31.3715 9.17541 13.9894
1 4.32304 13.1668 34.0245
2 4.93961 13.8255 33.5934
2 3.51145 13.0464 33.4528
1 22.6598 11.992 8.47744
2 22.5808 11.2041 9.08809
2 22.4056 11.721 7.54908
1 12.565 8.92537 31.889
2 12.9654 8.59761 32.7447
2 12.3988 8.14974 31.2802
1 7.37183 21.6422 6.22392
2 7.16919 22.5593 5.88065
2 7.30951 20.9842 5.47358
1 27.0076 16.634 8.08993
2 26.3961 16.8927 8.83762
2 27.4102 15.7392 8.28309
1 7.19611 3.79417 31.5933
2 7.16103 3.74933 30.595
2 8.13759 3.95988 31.8867
1 30.1591 16.21 7.44433
2 30.1163 17.1663 7.73351
2 29.2638 15.9249 7.10209
1 10.2167 4.3997 31.8968
2 10.6105 4.91898 31.1383
2 10.8528 4.40222 32.6683
1 27.5058 28.3879 25.6833
2 28.388 27.9267 25.7786
2 27.5393 29.2713 26.1506
1 19.0543 11.8993 31.2665
2 18.263 12.047 30.6733
2 18.7427 11.613 32.1726
1 3.86618 28.0939 13.0187
2 4.5119 27.4335 12.6356
2 3.79034 28.8801 12.4055
1 26.5992 23.3411 29.5581
2 25.7885 23.6506 29.0613
2 26.802 22.3943 29.3082
1 27.6895 7.40971 19.8611
2 27.8051 6.60329 20.441
2 27.2662 7.14029 18.996
1 20.0516 4.56036 1.84594
2 19.0942 4.38304 2.07401
2 20.4386 5.20207 2.50804
1 32.6019 15.4741 21.296
2 32.4136 16.4482 21.421
2 32.5976 15.017 22.1854
1 29.0543 5.06576 32.5329
2 28.156 4.90289 32.1248
2 28.9849 5.79843 33.2099
1 18.3058 3.04311 8.64163
2 18.0535 4.01062 8.65401
2 17.5227 2.49818 8.34211
1 34.7368 1.91251 8.11982
2 35.3648 2.28659 7.43753
2 34.5957 0.93821 7.94428
1 20.9526 29.3086 14.6908
2 21.183 28.3408 14.5894
2 19.9637 29.4058 14.8027
1 31.9052 26.1977 33.545
2 32.2867 27.1143 33.4259
2 31.8579 25.9804 34.5199
1 2.97458 9.05586 14.308
2 2.89178 8.93222 13.3192
2 2.1365 8.74237 14.7545
1 34.2454 3.69756 9.97076
2 34.6154 3.02013 9.33498
2 33.2468 3.6465 9.96832
1 19.8482 0.14555 18.9015
2 20.7001 0.66545 18.8386
2 19.0709 0.77369 18.8656
1 32.2584 30.8373 10.9244
2 32.5824 31.7145 10.5704
2 32.934 30.4645 11.5604
1 27.0178 17.9459 11.2345
2 26.8119 18.3764 12.1133
2 28.009 17.8924 11.1138
1 20.2299 35.2346 14.5869
2 20.5785 34.9594 13.691
2 20.5243 34.573 15.2766
1 28.1369 28.8737 1.33657
2 27.464 29.2672 0.71018
2 28.9201 28.5356 0.81488
1 19.054 9.098 19.79
2 18.0544 9.10305 19.8177
2 19.3892 10.0341 19.6835
1 28.9083 11.6791 7.13534
2 29.8078 11.8198 6.72185
2 28.3418 11.129 6.52182
1 15.6785 27.8009 20.4092
2 15.9652 28.5581 19.8224
2 16.4414 27.1658 20.5305
1 11.4712 8.69 1.78828
2 10.6631 9.18052 2.11417
2 11.2138 8.08927 1.03142
1 35.2891 10.2845 26.215
2 35.2112 9.44014 26.7451
2 0.39578 10.9186 26.6863
1 15.1239 29.335 22.6983
2 14.1938 29.7019 22.7156
2 15.2104 28.6814 21.9465
1 26.3533 6.84545 25.1713
2 25.9854 7.64249 24.6924
2 26.2323 6.03072 24.6043
1 17.8778 33.0786 31.335
2 18.2564 33.7849 30.7368
2 17.5863 33.4931 32.197
1 3.45206 32.2257 21.069
2 2.96341 32.5055 20.2427
2 3.44745 32.9766 21.7294
1 34.6885 28.2416 9.56684
2 33.8329 28.24 9.04931
2 35.0665 29.1672 9.58322
1 11.8363 33.7707 34.9766
2 12.7731 33.7672 34.6267
2 11.5766 32.8425 35.243
1 27.9898 23.6437 17.2866
2 27.3134 24.2755 17.6651
2 27.8569 22.7358 17.6842
1 30.2156 28.5982 35.3208
2 31.1366 28.3574 0.17971
2 30.1434 28.452 34.3342
1 21.8928 27.3711 7.14605
2 22.4308 28.043 7.65503
2 22.5066 26.7086 6.71689
1 1.75662 32.9686 9.6741
2 2.22776 33.0896 8.8004
2 2.24821 33.4651 10.3895
1 0.21094 25.7004 3.19371
2 0.74244 26.4322 3.62019
2 0.80652 24.9176 3.01303
1 13.8938 31.5148 7.21453
2 14.5419 30.7575 7.13407
2 13.6147 31.8131 6.3018
1 1.19622 17.235 10.1721
2 1.84313 16.4888 10.329
2 1.44494 17.721 9.33431
1 26.3963 29.9719 16.7926
2 25.56 30.2163 16.3018
2 27.0934 30.6706 16.6318
1 6.05191 32.3966 30.1851
2 6.81186 32.7595 30.7242
2 6.40726 31.9692 29.3538
1 26.1081 21.6684 1.29484
2 25.6712 21.862 2.17324
2 25.6023 22.1253 0.56313
1 17.4429 21.3049 6.11779
2 17.3402 22.2733 6.34498
2 17.4229 21.1916 5.12446
1 28.415 27.0938 17.1243
2 29.3514 27.3283 16.8632
2 27.8259 27.1258 16.3169
1 31.3042 34.7142 13.4433
2 30.9282 34.8748 14.3559
2 31.3315 33.7311 13.2623
1 17.8319 30.375 2.80681
2 18.7793 30.6176 2.59797
2 17.2144 30.9608 2.28189
1 21.2136 4.88439 14.5606
2 21.2887 5.64522 15.2051
2 20.9512 5.23403 13.6612
1 2.5816 4.47678 29.5795
2 1.78431 3.98285 29.2326
2 3.10038 3.88258 30.1941
1 13.9993 19.8214 25.1909
2 13.523 20.1205 26.0178
2 14.9724 20.0377 25.2701
1 31.2357 21.2743 20.2144
2 30.9882 22.0369 19.6169
2 31.7745 21.6156 20.9847
1 5.98967 23.6122 29.5051
2 6.977 23.4544 29.4888
2 5.74003 24.2384 28.7665
1 34.9795 3.70445 28.2189
2 34.3491 2.94118 28.0778
2 0.32312 3.53113 27.7214
1 23.9076 26.4071 10.4325
2 23.1449 27.0504 10.4973
2 24.6343 26.8069 9.87378
1 24.6636 14.214 8.75088
2 25.5581 13.8014 8.57868
2 23.9442 13.5608 8.51463
1 26.762 32.3289 18.5948
2 27.0498 33.2528 18.3429
2 25.7663 32.2611 18.5321
1 15.816 4.45782 25.2906
2 15.0001 4.36334 24.7202
2 16.0725 5.4226 25.3482
1 19.1822 10.0636 23.182
2 18.8061 10.7129 23.8429
2 20.1556 10.2499 23.0486
1 16.9208 8.8093 1.39624
2 17.4855 8.4771 0.64076
2 16.0123 8.39523 1.34044
1 22.4016 16.2966 33.0833
2 21.6392 15.719 32.7916
2 22.9497 15.8075 33.7617
1 8.68261 34.4883 6.98529
2 9.60677 34.4336 7.36327
2 8.71088 34.2897 6.00564
1 23.9514 6.8044 13.7063
2 24.0139 5.80664 13.684
2 24.0412 7.12303 14.6499
1 9.01439 30.1279 34.4153
2 8.30096 29.4278 34.3863
2 9.71944 29.9135 33.7394
1 26.4503 33.553 7.08366
2 25.7821 32.9395 6.66283
2 26.5013 33.3676 8.06498
1 30.888 23.1881 18.3969
2 29.9333 23.2401 18.1038
2 31.4827 23.1684 17.5932
1 10.5281 12.5427 34.9039
2 11.4453 12.1485 34.9606
2 10.4667 13.333 0.06628
1 3.63801 19.4363 9.70987
2 2.97661 19.2289 8.98912
2 4.55252 19.5095 9.31205
1 24.5517 32.703 5.53394
2 25.1063 32.3398 4.78533
2 23.6566 32.2572 5.53235
1 11.8105 0.45139 5.96055
2 11.3907 35.3972 6.67428
2 12.7846 0.56502 6.1559
1 7.05422 31.9291 0.30939
2 7.50991 32.8192 0.32211
2 7.60255 31.2815 35.2276
1 4.88099 2.44705 3.21183
2 5.10191 2.23231 4.16317
2 5.196 3.37148 2.997
1 7.47945 15.1537 10.2937
2 7.03313 15.9325 10.7343
2 7.09594 15.0231 9.37947
1 6.26659 26.9048 24.5466
2 5.54453 27.0407 25.2249
2 6.35642 27.7278 23.9859
1 7.15187 18.2012 25.545
2 6.48538 17.8544 26.2049
2 7.52394 17.4392 25.0151
1 15.2381 32.9177 4.26238
2 14.282 32.8676 4.55117
2 15.3235 32.5663 3.33007
1 13.9004 29.6976 15.3253
2 14.4824 29.0554 14.8264
2 13.2193 29.1897 15.8527
1 0.23593 14.7799 15.9934
2 35.1615 14.0013 16.2308
2 35.189 15.6124 15.9663
1 9.98786 25.2309 12.2694
2 10.0291 26.1085 11.7917
2 10.1893 25.3695 13.239
1 21.4598 13.2046 15.0142
2 21.8264 13.135 14.0864
2 20.4849 12.9824 15.0048
1 31.108 22.9998 9.65674
2 30.3688 23.5231 10.0807
2 31.9871 23.414 9.89228
1 13.2561 9.90592 3.33739
2 13.7086 10.6761 2.88796
2 12.6201 9.47384 2.69813
1 10.3031 4.65218 17.6409
2 10.4697 4.28256 18.555
2 11.1625 4.67871 17.1303
1 28.8777 21.4769 33.7521
2 28.5967 20.7774 34.4092
2 28.6474 21.1765 32.8266
1 17.6865 22.5277 26.0569
2 18.4054 23.2214 26.0134
2 17.6662 22.1256 26.9723
1 35.3286 15.3587 21.6092
2 34.3713 15.4132 21.3256
2 0.36572 14.9561 20.8726
1 34.8136 9.91603 7.88012
2 34.3464 10.3827 7.12917
2 34.394 10.1796 8.74872
1 25.9882 17.7283 34.7682
2 25.4616 18.4288 34.2867
2 25.3829 16.9759 35.0277
1 1.10644 14.4472 19.2887
2 1.56807 13.6924 19.7547
2 1.73043 14.8613 18.626
1 23.0703 7.39359 29.7249
2 22.6209 7.30025 28.8365
2 23.2405 6.48626 30.1093
1 10.5232 33.0545 2.56148
2 10.8235 34.0011 2.44456
2 10.8667 32.4999 1.80358
1 32.8803 27.8682 13.0465
2 33.4697 28.544 12.6039
2 33.1268 26.9524 12.7293
1 28.8638 12.2167 3.75354
2 28.5677 11.4928 4.37666
2 28.2384 12.2625 2.97467
1 23.1212 7.48978 34.393
2 23.051 7.80962 35.3379
2 23.9431 6.92935 34.291
1 23.0492 24.1221 3.43733
2 23.2165 24.959 3.95832
2 22.4322 23.5267 3.95201
1 32.9267 24.0076 30.5699
2 33.7188 24.5505 30.849
2 32.1199 24.5962 30.5206
1 3.45535 11.7457 10.9322
2 2.6181 11.8489 11.4691
2 4.12115 12.4352 11.2172
1 18.0306 4.40786 5.24725
2 18.5184 3.54031 5.15058
2 17.1314 4.24134 5.65181
1 21.9178 10.6753 23.0074
2 21.5002 11.4711 23.4458
2 22.9114 10.7864 22.9917
1 27.4317 31.4869 23.761
2 27.7824 32.2463 23.213
2 28.1968 30.9914 24.1722
1 31.1332 15.0473 2.15137
2 31.3935 14.2564 2.70508
2 30.5585 15.6596 2.69426
1 26.4828 26.4616 29.2332
2 26.2999 27.3788 29.5872
2 25.6207 25.9652 29.1326
1 31.2217 24.178 24.5874
2 31.237 25.1409 24.3183
2 31.4466 23.6076 23.7975
1 2.23033 8.39736 11.7015
2 2.21591 7.43318 11.9664
2 1.68011 8.52458 10.8763
1 10.3035 13.6936 7.45075
2 9.95467 13.2034 6.65202
2 11.018 14.3318 7.16427
1 19.0962 27.271 33.9641
2 18.2876 27.5888 33.4691
2 19.4026 27.9839 34.5948
1 21.984 20.9158 33.6059
2 22.1193 21.6603 32.9521
2 21.8719 21.2951 34.5244
1 8.05909 10.6132 31.6564
2 8.44206 9.70136 31.8045
2 7.46372 10.5982 30.8531
1 9.09413 18.3234 0.84811
2 9.41231 18.0045 1.74088
2 8.81473 17.5391 0.29424
1 13.2557 25.9706 14.2152
2 13.5582 26.216 15.1362
2 12.3302 25.5942 14.2576
1 33.1358 9.19316 24.0583
2 32.6303 9.79659 23.4416
2 34.1159 9.27845 23.8788
1 0.58676 30.7964 7.10521
2 0.12738 30.9342 7.98267
2 1.25039 30.0531 7.1895
1 16.6085 24.0069 6.45844
2 16.7408 24.601 5.66503
2 16.7395 24.5362 7.2967
1 21.7827 18.2349 15.2983
2 21.2921 17.365 15.2477
2 21.4758 18.7444 16.1021
1 1.07556 17.9078 22.5015
2 0.66446 17.0956 22.0875
2 2.00753 18.0218 22.1574
1 8.51481 8.69543 13.4458
2 8.0332 7.99947 12.9132
2 8.13923 9.59736 13.2326
1 28.3522 22.6756 2.57766
2 27.7287 22.2876 1.89891
2 28.7605 21.9378 3.11531
1 17.1518 8.01186 31.3361
2 16.7789 8.44369 32.1574
2 16.9633 8.5887 30.5414
1 29.3714 32.283 30.4077
2 28.5999 31.7782 30.7948
2 29.3414 32.2239 29.4099
1 35.301 34.4961 31.3106
2 0.55375 34.8382 31.8645
2 34.4501 34.9292 31.6076
1 14.0994 2.13015 18.0901
2 13.8646 1.50779 17.3434
2 14.0771 1.63332 18.9576
1 23.7481 3.68755 32.9567
2 23.657 3.88556 31.9808
2 22.87 3.83831 33.4108
1 31.1 21.5667 28.0756
2 31.8594 21.1508 28.5759
2 31.354 22.4916 27.7927
1 20.6408 15.6927 14.8211
2 20.0141 15.852 15.5838
2 21.1119 14.8206 14.9533
1 20.287 15.1372 31.9421
2 20.6512 14.3837 31.3948
2 19.3007 15.0193 32.0572
1 32.473 33.0542 7.42147
2 31.4848 33.1439 7.54532
2 32.7233 32.0861 7.42835
1 25.6362 27.7643 13.6201
2 26.5731 27.5151 13.865
2 25.1305 26.9425 13.3578
1 0.75304 4.33827 20.9707
2 0.72114 4.4673 19.9796
2 1.06157 5.18343 21.4071
1 1.1596 21.0966 13.1796
2 1.13952 21.5306 12.2789
2 1.23756 20.1057 13.0704
1 8.63426 29.6681 25.4282
2 8.28239 30.4025 24.8478
2 8.72735 28.8319 24.8878
1 30.7617 20.6326 25.1499
2 31.5187 20.9076 24.5571
2 30.993 20.835 26.1014
1 4.24571 30.7964 2.94362
2 4.1727 31.3915 2.14334
2 4.36412 29.8494 2.64506
1 15.4299 29.3535 26.2528
2 16.2864 29.2584 25.7457
2 14.71 28.8351 25.7913
1 15.4895 26.8987 10.3605
2 15.0602 26.0832 10.7485
2 16.4773 26.7571 10.2967
1 3.69092 24.798 1.79703
2 2.92286 24.8146 1.15692
2 4.44248 24.2696 1.40222
1 30.6358 20.4215 0.6836
2 29.6663 20.4995 0.45154
2 31.1719 21.0089 0.07726
1 23.0782 3.25695 10.1992
2 23.1307 3.67899 9.29418
2 22.1222 3.06798 10.4238
1 35.1735 13.9247 30.4181
2 34.4265 13.316 30.6852
2 35.4889 13.6825 29.5006
1 28.8879 35.0715 21.7756
2 29.8235 35.0818 22.1283
2 28.66 34.1498 21.462
1 11.051 25.6024 26.2831
2 11.2392 24.6232 26.2076
2 10.1011 25.7801 26.026
1 31.6334 18.1409 19.4415
2 31.8519 18.8525 20.1092
2 32.477 17.8111 19.0178
1 3.31136 2.63236 12.3345
2 2.41026 2.87346 11.9741
2 3.44117 3.06706 13.2256
1 12.246 6.49581 14.082
2 13.1573 6.37133 13.6896
2 12.0023 7.46532 14.0579
1 11.5055 16.9028 14.0496
2 12.2983 16.8513 13.4425
2 11.7196 16.4526 14.9164
1 35.4323 34.5781 0.88602
2 34.7814 34.9786 0.24105
2 0.05551 33.6101 0.67092
1 32.9016 21.6464 32.0448
2 32.921 22.3995 31.3873
2 32.1138 21.06 31.8567
1 28.6665 4.66095 28.4227
2 29.6444 4.61462 28.6267
2 28.3639 3.78767 28.0409
1 11.7977 16.6097 9.43182
2 12.6689 16.4518 9.89661
2 11.2224 15.7962 9.51672
1 9.55596 34.0291 10.6332
2 8.61455 34.2681 10.871
2 9.60738 33.0547 10.4146
1 22.071 19.007 23.4592
2 22.9148 19.4278 23.1262
2 21.6087 19.6364 24.0838
1 35.0507 19.9094 25.8047
2 35.3434 20.4703 25.0304
2 34.7712 20.5029 26.5594
1 1.29483 5.4465 7.26933
2 0.4559 5.92938 7.5203
2 1.81961 5.23896 8.09486
1 33.0789 1.6028 25.1561
2 32.3376 2.22668 25.4033
2 33.7056 2.0625 24.5269
1 14.2216 33.4362 22.797
2 14.3564 34.2983 23.2854
2 13.2625 33.1615 22.8643
1 27.0763 24.9196 8.20535
2 27.1924 24.9106 7.21216
2 26.7849 25.8302 8.49857
1 7.24937 20.2257 4.06221
2 6.58398 19.5235 4.31566
2 7.35965 20.2371 3.06839
1 13.4123 1.40249 12.7346
2 13.9375 1.43607 11.8843
2 12.5455 1.88546 12.6103
1 0.85266 16.3895 27.3818
2 1.08079 16.821 28.2545
2 1.16521 16.971 26.6307
1 4.02418 25.2951 4.78828
2 3.89068 25.618 3.85137
2 4.33792 24.3457 4.77208
1 16.5905 15.7719 19.3673
2 16.7553 16.3921 20.1343
2 17.4214 15.2491 19.177
1 33.1384 25.822 3.97841
2 32.7797 24.9051 4.15352
2 34.0529 25.7516 3.57992
1 31.5766 1.0293 18.5631
2 31.8794 0.41338 19.2903
2 31.6516 0.56519 17.6805
1 2.96164 16.2935 6.71299
2 3.05881 15.4903 7.3006
2 3.23467 16.059 5.78005
1 20.3438 33.6987 7.89455
2 20.3944 32.7017 7.83518
2 19.5152 33.9615 8.38879
1 19.3744 16.8051 19.7357
2 20.2747 17.2136 19.8859
2 19.3646 15.8754 20.1039
1 19.2331 9.13979 28.8898
2 20.133 9.57333 28.9381
2 18.7671 9.24056 29.7688
1 27.7279 22.9168 10.4599
2 27.549 23.4401 9.62678
2 28.2804 22.1138 10.2369
1 6.3284 1.89288 33.4401
2 6.55965 2.59979 32.7717
2 6.96546 1.94041 34.2094
1 5.63638 5.55085 15.381
2 6.60617 5.51829 15.6226
2 5.27855 6.46702 15.5613
1 3.24229 34.9529 10.9347
2 2.73508 0.26278 11.2111
2 4.1367 34.9489 11.3818
1 10.544 28.1701 5.04204
2 10.7973 28.8748 5.70473
2 9.58213 27.9264 5.1659
1 17.0092 14.0669 8.09635
2 17.3736 14.7603 8.71785
2 16.5534 14.515 7.32736
1 6.62644 33.8527 2.78808
2 5.73917 34.0256 3.21562
2 6.61962 34.2046 1.85208
1 29.7654 24.7635 2.86127
2 29.1541 23.9795 2.75344
2 30.6194 24.4642 3.28677
1 13.5907 30.3712 2.31161
2 12.6517 30.5188 2.62207
2 14.0591 29.7573 2.94695
1 12.3982 27.4713 30.657
2 12.9912 27.1901 29.9025
2 12.4572 26.7996 31.3955